Program Version,EnergyPlus, Version 22.1.0-ed759b17ee, YMD=2022.11.18 16:23
1,5,Environment Title[],Latitude[deg],Longitude[deg],Time Zone[],Elevation[m]
2,8,Day of Simulation[],Month[],Day of Month[],DST Indicator[1=yes 0=no],Hour[],StartMinute[],EndMinute[],DayType
3,5,Cumulative Day of Simulation[],Month[],Day of Month[],DST Indicator[1=yes 0=no],DayType  ! When Daily Meters Requested
4,2,Cumulative Days of Simulation[],Month[]  ! When Monthly Meters Requested
5,1,Cumulative Days of Simulation[] ! When Run Period Meters Requested
6,1,Calendar Year of Simulation[] ! When Annual Meters Requested
3217,1,DistrictCooling:Facility [J] !TimeStep
3168,1,DistrictHeating:Facility [J] !TimeStep
End of Data Dictionary
1,RUN PERIOD 1,  32.17,-110.88,  -7.00, 809.00
2,1, 1, 1, 0, 1, 0.00,10.00,Sunday
3168,8598929.636893734
3217,0.0
2,1, 1, 1, 0, 1,10.00,20.00,Sunday
3168,8946592.262084791
3217,0.0
2,1, 1, 1, 0, 1,20.00,30.00,Sunday
3168,9270808.520177936
3217,0.0
2,1, 1, 1, 0, 1,30.00,40.00,Sunday
3168,9572147.923463747
3217,0.0
2,1, 1, 1, 0, 1,40.00,50.00,Sunday
3168,9857569.623198897
3217,0.0
2,1, 1, 1, 0, 1,50.00,60.00,Sunday
3168,10105303.220448006
3217,0.0
2,1, 1, 1, 0, 2, 0.00,10.00,Sunday
3168,10238727.837308172
3217,0.0
2,1, 1, 1, 0, 2,10.00,20.00,Sunday
3168,10417156.199519137
3217,0.0
2,1, 1, 1, 0, 2,20.00,30.00,Sunday
3168,10549200.43129951
3217,0.0
2,1, 1, 1, 0, 2,30.00,40.00,Sunday
3168,10692890.777509827
3217,0.0
2,1, 1, 1, 0, 2,40.00,50.00,Sunday
3168,10833478.771676494
3217,0.0
2,1, 1, 1, 0, 2,50.00,60.00,Sunday
3168,10970626.486206653
3217,0.0
2,1, 1, 1, 0, 3, 0.00,10.00,Sunday
3168,10929137.426906865
3217,0.0
2,1, 1, 1, 0, 3,10.00,20.00,Sunday
3168,10877308.502549034
3217,0.0
2,1, 1, 1, 0, 3,20.00,30.00,Sunday
3168,10817209.797166055
3217,0.0
2,1, 1, 1, 0, 3,30.00,40.00,Sunday
3168,10750127.188816696
3217,0.0
2,1, 1, 1, 0, 3,40.00,50.00,Sunday
3168,10673466.56411799
3217,0.0
2,1, 1, 1, 0, 3,50.00,60.00,Sunday
3168,10587653.517080244
3217,0.0
2,1, 1, 1, 0, 4, 0.00,10.00,Sunday
3168,10737822.077141237
3217,0.0
2,1, 1, 1, 0, 4,10.00,20.00,Sunday
3168,10884610.902174843
3217,0.0
2,1, 1, 1, 0, 4,20.00,30.00,Sunday
3168,11036222.949339144
3217,0.0
2,1, 1, 1, 0, 4,30.00,40.00,Sunday
3168,11184659.900285395
3217,0.0
2,1, 1, 1, 0, 4,40.00,50.00,Sunday
3168,11337069.527116325
3217,0.0
2,1, 1, 1, 0, 4,50.00,60.00,Sunday
3168,11489600.923884226
3217,0.0
2,1, 1, 1, 0, 5, 0.00,10.00,Sunday
3168,11674715.897700561
3217,0.0
2,1, 1, 1, 0, 5,10.00,20.00,Sunday
3168,11859950.164829917
3217,0.0
2,1, 1, 1, 0, 5,20.00,30.00,Sunday
3168,12043209.460094895
3217,0.0
2,1, 1, 1, 0, 5,30.00,40.00,Sunday
3168,12230286.631451963
3217,0.0
2,1, 1, 1, 0, 5,40.00,50.00,Sunday
3168,12418548.412178615
3217,0.0
2,1, 1, 1, 0, 5,50.00,60.00,Sunday
3168,12606440.346814027
3217,0.0
2,1, 1, 1, 0, 6, 0.00,10.00,Sunday
3168,12677578.88560408
3217,0.0
2,1, 1, 1, 0, 6,10.00,20.00,Sunday
3168,12747280.233424312
3217,0.0
2,1, 1, 1, 0, 6,20.00,30.00,Sunday
3168,12815971.560599167
3217,0.0
2,1, 1, 1, 0, 6,30.00,40.00,Sunday
3168,12881767.08665642
3217,0.0
2,1, 1, 1, 0, 6,40.00,50.00,Sunday
3168,12945817.97587379
3217,0.0
2,1, 1, 1, 0, 6,50.00,60.00,Sunday
3168,13007254.441292135
3217,0.0
2,1, 1, 1, 0, 7, 0.00,10.00,Sunday
3168,12364327.427834341
3217,0.0
2,1, 1, 1, 0, 7,10.00,20.00,Sunday
3168,12373038.310196396
3217,0.0
2,1, 1, 1, 0, 7,20.00,30.00,Sunday
3168,12397777.162532628
3217,0.0
2,1, 1, 1, 0, 7,30.00,40.00,Sunday
3168,12421690.487226035
3217,0.0
2,1, 1, 1, 0, 7,40.00,50.00,Sunday
3168,12439461.681854874
3217,0.0
2,1, 1, 1, 0, 7,50.00,60.00,Sunday
3168,12452913.090085952
3217,0.0
2,1, 1, 1, 0, 8, 0.00,10.00,Sunday
3168,12768039.989260929
3217,0.0
2,1, 1, 1, 0, 8,10.00,20.00,Sunday
3168,13081359.57351317
3217,0.0
2,1, 1, 1, 0, 8,20.00,30.00,Sunday
3168,12444469.150128253
3217,0.0
2,1, 1, 1, 0, 8,30.00,40.00,Sunday
3168,11840504.409132034
3217,0.0
2,1, 1, 1, 0, 8,40.00,50.00,Sunday
3168,11179863.920716194
3217,0.0
2,1, 1, 1, 0, 8,50.00,60.00,Sunday
3168,10531257.14089358
3217,0.0
2,1, 1, 1, 0, 9, 0.00,10.00,Sunday
3168,9381317.573214445
3217,0.0
2,1, 1, 1, 0, 9,10.00,20.00,Sunday
3168,8405179.751218585
3217,0.0
2,1, 1, 1, 0, 9,20.00,30.00,Sunday
3168,7501370.087650735
3217,0.0
2,1, 1, 1, 0, 9,30.00,40.00,Sunday
3168,6940267.416677369
3217,0.0
2,1, 1, 1, 0, 9,40.00,50.00,Sunday
3168,6396370.36523742
3217,0.0
2,1, 1, 1, 0, 9,50.00,60.00,Sunday
3168,5875897.918393116
3217,0.0
2,1, 1, 1, 0,10, 0.00,10.00,Sunday
3168,5771218.988223147
3217,0.0
2,1, 1, 1, 0,10,10.00,20.00,Sunday
3168,5669953.653275864
3217,0.0
2,1, 1, 1, 0,10,20.00,30.00,Sunday
3168,5562240.392516826
3217,0.0
2,1, 1, 1, 0,10,30.00,40.00,Sunday
3168,5429877.519506725
3217,0.0
2,1, 1, 1, 0,10,40.00,50.00,Sunday
3168,5340484.651038089
3217,0.0
2,1, 1, 1, 0,10,50.00,60.00,Sunday
3168,5209910.920515759
3217,0.0
2,1, 1, 1, 0,11, 0.00,10.00,Sunday
3168,4974650.022328108
3217,0.0
2,1, 1, 1, 0,11,10.00,20.00,Sunday
3168,4731725.701610612
3217,86355.48355844806
2,1, 1, 1, 0,11,20.00,30.00,Sunday
3168,4480261.567807309
3217,247000.93101536616
2,1, 1, 1, 0,11,30.00,40.00,Sunday
3168,4254722.4924029065
3217,307281.4067629486
2,1, 1, 1, 0,11,40.00,50.00,Sunday
3168,4033899.0971936644
3217,721965.030560634
2,1, 1, 1, 0,11,50.00,60.00,Sunday
3168,3828980.401940283
3217,1092586.0044464434
2,1, 1, 1, 0,12, 0.00,10.00,Sunday
3168,3517018.353095723
3217,1402233.4187107915
2,1, 1, 1, 0,12,10.00,20.00,Sunday
3168,3245044.8437310923
3217,1822340.5700815264
2,1, 1, 1, 0,12,20.00,30.00,Sunday
3168,2976686.5887922756
3217,2307302.4757614387
2,1, 1, 1, 0,12,30.00,40.00,Sunday
3168,2681435.7281296337
3217,2870518.4609142565
2,1, 1, 1, 0,12,40.00,50.00,Sunday
3168,2435881.6033699596
3217,3019485.146177574
2,1, 1, 1, 0,12,50.00,60.00,Sunday
3168,2185191.2028032206
3217,3273981.4764079894
2,1, 1, 1, 0,13, 0.00,10.00,Sunday
3168,2004341.362957591
3217,3411244.7094373135
2,1, 1, 1, 0,13,10.00,20.00,Sunday
3168,1868088.4085787053
3217,3514317.3675068705
2,1, 1, 1, 0,13,20.00,30.00,Sunday
3168,1730819.3567746787
3217,3679780.45379047
2,1, 1, 1, 0,13,30.00,40.00,Sunday
3168,1595037.1052354036
3217,4087324.8640749687
2,1, 1, 1, 0,13,40.00,50.00,Sunday
3168,1466973.8022402702
3217,4545923.799950457
2,1, 1, 1, 0,13,50.00,60.00,Sunday
3168,1327175.1780893684
3217,4947627.355929658
2,1, 1, 1, 0,14, 0.00,10.00,Sunday
3168,1234619.233335473
3217,5402120.679899224
2,1, 1, 1, 0,14,10.00,20.00,Sunday
3168,1118097.0056606545
3217,5752040.587365682
2,1, 1, 1, 0,14,20.00,30.00,Sunday
3168,1014841.0453629852
3217,6165694.016239027
2,1, 1, 1, 0,14,30.00,40.00,Sunday
3168,949418.6309948314
3217,6378618.95808451
2,1, 1, 1, 0,14,40.00,50.00,Sunday
3168,905039.4466430196
3217,6535397.996905979
2,1, 1, 1, 0,14,50.00,60.00,Sunday
3168,862511.6980790438
3217,6669337.516324515
2,1, 1, 1, 0,15, 0.00,10.00,Sunday
3168,814862.4228759333
3217,6759469.275382859
2,1, 1, 1, 0,15,10.00,20.00,Sunday
3168,767282.6043681984
3217,6827570.106522311
2,1, 1, 1, 0,15,20.00,30.00,Sunday
3168,721173.7037661747
3217,6874085.454560876
2,1, 1, 1, 0,15,30.00,40.00,Sunday
3168,662970.1007624448
3217,6872328.352433186
2,1, 1, 1, 0,15,40.00,50.00,Sunday
3168,602625.9802840417
3217,6846537.99310475
2,1, 1, 1, 0,15,50.00,60.00,Sunday
3168,541616.1654752111
3217,6895414.0664491225
2,1, 1, 1, 0,16, 0.00,10.00,Sunday
3168,515543.13736384356
3217,7093256.454096374
2,1, 1, 1, 0,16,10.00,20.00,Sunday
3168,492162.76949629246
3217,7229355.865064213
2,1, 1, 1, 0,16,20.00,30.00,Sunday
3168,476018.3143974704
3217,7279470.6299296385
2,1, 1, 1, 0,16,30.00,40.00,Sunday
3168,471845.0439200155
3217,7603926.598160902
2,1, 1, 1, 0,16,40.00,50.00,Sunday
3168,471845.56089683034
3217,7602715.181184355
2,1, 1, 1, 0,16,50.00,60.00,Sunday
3168,471925.9696878041
3217,7710390.591186065
2,1, 1, 1, 0,17, 0.00,10.00,Sunday
3168,481664.03580150794
3217,7714545.449988931
2,1, 1, 1, 0,17,10.00,20.00,Sunday
3168,494126.34700833005
3217,7697880.431898876
2,1, 1, 1, 0,17,20.00,30.00,Sunday
3168,509175.7935082467
3217,7663747.0066605285
2,1, 1, 1, 0,17,30.00,40.00,Sunday
3168,542621.0356530617
3217,6337597.863796281
2,1, 1, 1, 0,17,40.00,50.00,Sunday
3168,610698.9689078357
3217,4840328.055490092
2,1, 1, 1, 0,17,50.00,60.00,Sunday
3168,664652.5080340536
3217,3327936.00132357
2,1, 1, 1, 0,18, 0.00,10.00,Sunday
3168,775613.7400951788
3217,1926763.7348163624
2,1, 1, 1, 0,18,10.00,20.00,Sunday
3168,900930.9465094724
3217,989551.4058645277
2,1, 1, 1, 0,18,20.00,30.00,Sunday
3168,1027399.0360169794
3217,554686.5698630121
2,1, 1, 1, 0,18,30.00,40.00,Sunday
3168,1118737.9171386217
3217,448003.988433721
2,1, 1, 1, 0,18,40.00,50.00,Sunday
3168,1201659.2243841588
3217,367085.9608242602
2,1, 1, 1, 0,18,50.00,60.00,Sunday
3168,1284288.4464196584
3217,293338.6727559701
2,1, 1, 1, 0,19, 0.00,10.00,Sunday
3168,1573335.8096146532
3217,171479.54654110072
2,1, 1, 1, 0,19,10.00,20.00,Sunday
3168,1682687.2363450034
3217,100803.74969072005
2,1, 1, 1, 0,19,20.00,30.00,Sunday
3168,1837594.259918314
3217,35468.11177409836
2,1, 1, 1, 0,19,30.00,40.00,Sunday
3168,1964709.1954699322
3217,0.0
2,1, 1, 1, 0,19,40.00,50.00,Sunday
3168,2093950.6365951328
3217,0.0
2,1, 1, 1, 0,19,50.00,60.00,Sunday
3168,2252871.4171814932
3217,0.0
2,1, 1, 1, 0,20, 0.00,10.00,Sunday
3168,2423784.7387817353
3217,0.0
2,1, 1, 1, 0,20,10.00,20.00,Sunday
3168,2484107.425520627
3217,0.0
2,1, 1, 1, 0,20,20.00,30.00,Sunday
3168,2591880.622023271
3217,0.0
2,1, 1, 1, 0,20,30.00,40.00,Sunday
3168,2679304.491499292
3217,0.0
2,1, 1, 1, 0,20,40.00,50.00,Sunday
3168,2761060.579823637
3217,0.0
2,1, 1, 1, 0,20,50.00,60.00,Sunday
3168,2837370.816288765
3217,0.0
2,1, 1, 1, 0,21, 0.00,10.00,Sunday
3168,2860871.8079005503
3217,0.0
2,1, 1, 1, 0,21,10.00,20.00,Sunday
3168,2877920.553908279
3217,0.0
2,1, 1, 1, 0,21,20.00,30.00,Sunday
3168,2888086.9682884132
3217,0.0
2,1, 1, 1, 0,21,30.00,40.00,Sunday
3168,2892681.4657106604
3217,0.0
2,1, 1, 1, 0,21,40.00,50.00,Sunday
3168,2931739.198039711
3217,0.0
2,1, 1, 1, 0,21,50.00,60.00,Sunday
3168,2962075.6866331995
3217,0.0
2,1, 1, 1, 0,22, 0.00,10.00,Sunday
3168,3223708.688917443
3217,0.0
2,1, 1, 1, 0,22,10.00,20.00,Sunday
3168,3494848.2649233732
3217,0.0
2,1, 1, 1, 0,22,20.00,30.00,Sunday
3168,3904388.410870214
3217,0.0
2,1, 1, 1, 0,22,30.00,40.00,Sunday
3168,4214096.928194257
3217,0.0
2,1, 1, 1, 0,22,40.00,50.00,Sunday
3168,4580868.101616496
3217,0.0
2,1, 1, 1, 0,22,50.00,60.00,Sunday
3168,4950406.302491648
3217,0.0
2,1, 1, 1, 0,23, 0.00,10.00,Sunday
3168,5140562.72463237
3217,0.0
2,1, 1, 1, 0,23,10.00,20.00,Sunday
3168,5324513.839020845
3217,0.0
2,1, 1, 1, 0,23,20.00,30.00,Sunday
3168,5504693.333889376
3217,0.0
2,1, 1, 1, 0,23,30.00,40.00,Sunday
3168,5683091.2323064385
3217,0.0
2,1, 1, 1, 0,23,40.00,50.00,Sunday
3168,5859717.458206972
3217,0.0
2,1, 1, 1, 0,23,50.00,60.00,Sunday
3168,6029677.736352448
3217,0.0
2,1, 1, 1, 0,24, 0.00,10.00,Sunday
3168,6428448.055152395
3217,0.0
2,1, 1, 1, 0,24,10.00,20.00,Sunday
3168,6730835.876549331
3217,0.0
2,1, 1, 1, 0,24,20.00,30.00,Sunday
3168,7103587.526867077
3217,0.0
2,1, 1, 1, 0,24,30.00,40.00,Sunday
3168,7490733.560135582
3217,0.0
2,1, 1, 1, 0,24,40.00,50.00,Sunday
3168,7858238.052970279
3217,0.0
2,1, 1, 1, 0,24,50.00,60.00,Sunday
3168,8245955.791012617
3217,0.0
2,2, 1, 2, 0, 1, 0.00,10.00,Monday
3168,7961001.819752714
3217,0.0
2,2, 1, 2, 0, 1,10.00,20.00,Monday
3168,8019872.8002640065
3217,0.0
2,2, 1, 2, 0, 1,20.00,30.00,Monday
3168,8083479.8004909195
3217,0.0
2,2, 1, 2, 0, 1,30.00,40.00,Monday
3168,8142125.381874127
3217,0.0
2,2, 1, 2, 0, 1,40.00,50.00,Monday
3168,8194357.161236244
3217,0.0
2,2, 1, 2, 0, 1,50.00,60.00,Monday
3168,8242865.913583665
3217,0.0
2,2, 1, 2, 0, 2, 0.00,10.00,Monday
3168,8410895.406633493
3217,0.0
2,2, 1, 2, 0, 2,10.00,20.00,Monday
3168,8574820.432393609
3217,0.0
2,2, 1, 2, 0, 2,20.00,30.00,Monday
3168,8733057.51360161
3217,0.0
2,2, 1, 2, 0, 2,30.00,40.00,Monday
3168,8884439.492256904
3217,0.0
2,2, 1, 2, 0, 2,40.00,50.00,Monday
3168,9028423.563273352
3217,0.0
2,2, 1, 2, 0, 2,50.00,60.00,Monday
3168,9164935.104476811
3217,0.0
2,2, 1, 2, 0, 3, 0.00,10.00,Monday
3168,8924269.29146254
3217,0.0
2,2, 1, 2, 0, 3,10.00,20.00,Monday
3168,8676995.995580988
3217,0.0
2,2, 1, 2, 0, 3,20.00,30.00,Monday
3168,8422929.461306429
3217,0.0
2,2, 1, 2, 0, 3,30.00,40.00,Monday
3168,8162972.689611695
3217,0.0
2,2, 1, 2, 0, 3,40.00,50.00,Monday
3168,7899309.098178999
3217,0.0
2,2, 1, 2, 0, 3,50.00,60.00,Monday
3168,7635519.014213402
3217,0.0
2,2, 1, 2, 0, 4, 0.00,10.00,Monday
3168,7987410.740047079
3217,0.0
2,2, 1, 2, 0, 4,10.00,20.00,Monday
3168,8332273.605989448
3217,0.0
2,2, 1, 2, 0, 4,20.00,30.00,Monday
3168,8667616.517725615
3217,0.0
2,2, 1, 2, 0, 4,30.00,40.00,Monday
3168,8991197.337664763
3217,0.0
2,2, 1, 2, 0, 4,40.00,50.00,Monday
3168,9340874.961730735
3217,0.0
2,2, 1, 2, 0, 4,50.00,60.00,Monday
3168,9650030.651917754
3217,0.0
2,2, 1, 2, 0, 5, 0.00,10.00,Monday
3168,9559057.82003732
3217,0.0
2,2, 1, 2, 0, 5,10.00,20.00,Monday
3168,9463180.600560997
3217,0.0
2,2, 1, 2, 0, 5,20.00,30.00,Monday
3168,9352987.441672789
3217,0.0
2,2, 1, 2, 0, 5,30.00,40.00,Monday
3168,9232768.923132822
3217,0.0
2,2, 1, 2, 0, 5,40.00,50.00,Monday
3168,9104419.401314856
3217,0.0
2,2, 1, 2, 0, 5,50.00,60.00,Monday
3168,8969416.107230004
3217,0.0
2,2, 1, 2, 0, 6, 0.00,10.00,Monday
3168,0.0
3217,0.0
2,2, 1, 2, 0, 6,10.00,20.00,Monday
3168,0.0
3217,0.0
2,2, 1, 2, 0, 6,20.00,30.00,Monday
3168,0.0
3217,0.0
2,2, 1, 2, 0, 6,30.00,40.00,Monday
3168,0.0
3217,0.0
2,2, 1, 2, 0, 6,40.00,50.00,Monday
3168,0.0
3217,0.0
2,2, 1, 2, 0, 6,50.00,60.00,Monday
3168,0.0
3217,0.0
2,2, 1, 2, 0, 7, 0.00,10.00,Monday
3168,0.0
3217,0.0
2,2, 1, 2, 0, 7,10.00,20.00,Monday
3168,20176000.724122927
3217,0.0
2,2, 1, 2, 0, 7,20.00,30.00,Monday
3168,665591.0795914329
3217,0.0
2,2, 1, 2, 0, 7,30.00,40.00,Monday
3168,11963667.910648433
3217,0.0
2,2, 1, 2, 0, 7,40.00,50.00,Monday
3168,10435214.479441607
3217,0.0
2,2, 1, 2, 0, 7,50.00,60.00,Monday
3168,9058632.395021176
3217,0.0
2,2, 1, 2, 0, 8, 0.00,10.00,Monday
3168,17944441.177336145
3217,0.0
2,2, 1, 2, 0, 8,10.00,20.00,Monday
3168,17810216.471403975
3217,0.0
2,2, 1, 2, 0, 8,20.00,30.00,Monday
3168,16328784.02499153
3217,0.0
2,2, 1, 2, 0, 8,30.00,40.00,Monday
3168,15357380.021677839
3217,0.0
2,2, 1, 2, 0, 8,40.00,50.00,Monday
3168,14661770.251551254
3217,0.0
2,2, 1, 2, 0, 8,50.00,60.00,Monday
3168,14070318.908785978
3217,0.0
2,2, 1, 2, 0, 9, 0.00,10.00,Monday
3168,882142.1800355748
3217,2909649.616314191
2,2, 1, 2, 0, 9,10.00,20.00,Monday
3168,626303.759072385
3217,3907575.9366690256
2,2, 1, 2, 0, 9,20.00,30.00,Monday
3168,466739.8963620023
3217,5318820.870915319
2,2, 1, 2, 0, 9,30.00,40.00,Monday
3168,292276.273595712
3217,5927246.231637619
2,2, 1, 2, 0, 9,40.00,50.00,Monday
3168,133885.8894439484
3217,7250313.5988987135
2,2, 1, 2, 0, 9,50.00,60.00,Monday
3168,0.0
3217,8411074.88332046
2,2, 1, 2, 0,10, 0.00,10.00,Monday
3168,0.0
3217,9434116.50295463
2,2, 1, 2, 0,10,10.00,20.00,Monday
3168,0.0
3217,10369478.165353542
2,2, 1, 2, 0,10,20.00,30.00,Monday
3168,0.0
3217,11231416.940221904
2,2, 1, 2, 0,10,30.00,40.00,Monday
3168,0.0
3217,12677263.338281587
2,2, 1, 2, 0,10,40.00,50.00,Monday
3168,0.0
3217,13344053.737141833
2,2, 1, 2, 0,10,50.00,60.00,Monday
3168,0.0
3217,14128536.893367697
2,2, 1, 2, 0,11, 0.00,10.00,Monday
3168,0.0
3217,14847880.078998664
2,2, 1, 2, 0,11,10.00,20.00,Monday
3168,0.0
3217,15518606.769656708
2,2, 1, 2, 0,11,20.00,30.00,Monday
3168,0.0
3217,16173727.628286082
2,2, 1, 2, 0,11,30.00,40.00,Monday
3168,0.0
3217,16731051.034801237
2,2, 1, 2, 0,11,40.00,50.00,Monday
3168,0.0
3217,17360045.751695473
2,2, 1, 2, 0,11,50.00,60.00,Monday
3168,0.0
3217,17960380.76598301
2,2, 1, 2, 0,12, 0.00,10.00,Monday
3168,0.0
3217,18438484.37711562
2,2, 1, 2, 0,12,10.00,20.00,Monday
3168,0.0
3217,18882337.388750616
2,2, 1, 2, 0,12,20.00,30.00,Monday
3168,0.0
3217,19299109.43525634
2,2, 1, 2, 0,12,30.00,40.00,Monday
3168,0.0
3217,19678047.184774015
2,2, 1, 2, 0,12,40.00,50.00,Monday
3168,0.0
3217,19942411.536131516
2,2, 1, 2, 0,12,50.00,60.00,Monday
3168,0.0
3217,20283599.917385
2,2, 1, 2, 0,13, 0.00,10.00,Monday
3168,0.0
3217,14173583.573401138
2,2, 1, 2, 0,13,10.00,20.00,Monday
3168,0.0
3217,14309391.802898243
2,2, 1, 2, 0,13,20.00,30.00,Monday
3168,0.0
3217,14545386.611597896
2,2, 1, 2, 0,13,30.00,40.00,Monday
3168,0.0
3217,14761968.423134524
2,2, 1, 2, 0,13,40.00,50.00,Monday
3168,0.0
3217,14969678.757383173
2,2, 1, 2, 0,13,50.00,60.00,Monday
3168,0.0
3217,15210639.196608681
2,2, 1, 2, 0,14, 0.00,10.00,Monday
3168,0.0
3217,22274014.150745526
2,2, 1, 2, 0,14,10.00,20.00,Monday
3168,0.0
3217,23566556.7874075
2,2, 1, 2, 0,14,20.00,30.00,Monday
3168,0.0
3217,26017956.858094502
2,2, 1, 2, 0,14,30.00,40.00,Monday
3168,0.0
3217,25972230.738416735
2,2, 1, 2, 0,14,40.00,50.00,Monday
3168,0.0
3217,27213482.20729894
2,2, 1, 2, 0,14,50.00,60.00,Monday
3168,0.0
3217,28210791.077581085
2,2, 1, 2, 0,15, 0.00,10.00,Monday
3168,0.0
3217,28693602.72893284
2,2, 1, 2, 0,15,10.00,20.00,Monday
3168,0.0
3217,29159606.361171544
2,2, 1, 2, 0,15,20.00,30.00,Monday
3168,0.0
3217,29474071.880887542
2,2, 1, 2, 0,15,30.00,40.00,Monday
3168,0.0
3217,30345473.02897597
2,2, 1, 2, 0,15,40.00,50.00,Monday
3168,0.0
3217,31155364.466260888
2,2, 1, 2, 0,15,50.00,60.00,Monday
3168,0.0
3217,32023996.153675612
2,2, 1, 2, 0,16, 0.00,10.00,Monday
3168,0.0
3217,32953856.49018389
2,2, 1, 2, 0,16,10.00,20.00,Monday
3168,0.0
3217,33870305.18025536
2,2, 1, 2, 0,16,20.00,30.00,Monday
3168,0.0
3217,34748178.583208635
2,2, 1, 2, 0,16,30.00,40.00,Monday
3168,0.0
3217,34965011.323843844
2,2, 1, 2, 0,16,40.00,50.00,Monday
3168,0.0
3217,35045067.89942418
2,2, 1, 2, 0,16,50.00,60.00,Monday
3168,0.0
3217,35036859.92846646
2,2, 1, 2, 0,17, 0.00,10.00,Monday
3168,0.0
3217,34785761.69083553
2,2, 1, 2, 0,17,10.00,20.00,Monday
3168,0.0
3217,34516403.51181444
2,2, 1, 2, 0,17,20.00,30.00,Monday
3168,0.0
3217,34160705.5733468
2,2, 1, 2, 0,17,30.00,40.00,Monday
3168,0.0
3217,32879537.376699213
2,2, 1, 2, 0,17,40.00,50.00,Monday
3168,0.0
3217,31403573.69174622
2,2, 1, 2, 0,17,50.00,60.00,Monday
3168,0.0
3217,29992203.46524646
2,2, 1, 2, 0,18, 0.00,10.00,Monday
3168,0.0
3217,11227413.76157982
2,2, 1, 2, 0,18,10.00,20.00,Monday
3168,0.0
3217,9502769.105422735
2,2, 1, 2, 0,18,20.00,30.00,Monday
3168,0.0
3217,7880643.700382748
2,2, 1, 2, 0,18,30.00,40.00,Monday
3168,0.0
3217,7320705.8538799295
2,2, 1, 2, 0,18,40.00,50.00,Monday
3168,0.0
3217,6899518.169967584
2,2, 1, 2, 0,18,50.00,60.00,Monday
3168,0.0
3217,6592016.912048536
2,2, 1, 2, 0,19, 0.00,10.00,Monday
3168,0.0
3217,3766050.0447742427
2,2, 1, 2, 0,19,10.00,20.00,Monday
3168,0.0
3217,3270685.8399233446
2,2, 1, 2, 0,19,20.00,30.00,Monday
3168,0.0
3217,3077877.8243176993
2,2, 1, 2, 0,19,30.00,40.00,Monday
3168,0.0
3217,2959082.946686167
2,2, 1, 2, 0,19,40.00,50.00,Monday
3168,0.0
3217,2819140.865698147
2,2, 1, 2, 0,19,50.00,60.00,Monday
3168,0.0
3217,2711970.1154017863
2,2, 1, 2, 0,20, 0.00,10.00,Monday
3168,0.0
3217,3013828.6697324584
2,2, 1, 2, 0,20,10.00,20.00,Monday
3168,0.0
3217,3181539.0241318285
2,2, 1, 2, 0,20,20.00,30.00,Monday
3168,0.0
3217,2991518.603328283
2,2, 1, 2, 0,20,30.00,40.00,Monday
3168,0.0
3217,2955421.8058368755
2,2, 1, 2, 0,20,40.00,50.00,Monday
3168,0.0
3217,2900349.6143057426
2,2, 1, 2, 0,20,50.00,60.00,Monday
3168,0.0
3217,2848916.7192302817
2,2, 1, 2, 0,21, 0.00,10.00,Monday
3168,0.0
3217,2565482.374383427
2,2, 1, 2, 0,21,10.00,20.00,Monday
3168,0.0
3217,2460009.3643637765
2,2, 1, 2, 0,21,20.00,30.00,Monday
3168,0.0
3217,2386972.076692483
2,2, 1, 2, 0,21,30.00,40.00,Monday
3168,0.0
3217,2321169.70696601
2,2, 1, 2, 0,21,40.00,50.00,Monday
3168,0.0
3217,2259401.700748506
2,2, 1, 2, 0,21,50.00,60.00,Monday
3168,0.0
3217,2199459.3531148154
2,2, 1, 2, 0,22, 0.00,10.00,Monday
3168,0.0
3217,2156934.1083956985
2,2, 1, 2, 0,22,10.00,20.00,Monday
3168,0.0
3217,2117175.3650962473
2,2, 1, 2, 0,22,20.00,30.00,Monday
3168,0.0
3217,2080617.7642369294
2,2, 1, 2, 0,22,30.00,40.00,Monday
3168,0.0
3217,2046030.9858085308
2,2, 1, 2, 0,22,40.00,50.00,Monday
3168,0.0
3217,2012596.4744508944
2,2, 1, 2, 0,22,50.00,60.00,Monday
3168,0.0
3217,1980936.9838613954
2,2, 1, 2, 0,23, 0.00,10.00,Monday
3168,0.0
3217,1451334.400712795
2,2, 1, 2, 0,23,10.00,20.00,Monday
3168,84908.472354406
3217,1379557.017920489
2,2, 1, 2, 0,23,20.00,30.00,Monday
3168,160559.85338618487
3217,1335339.056172109
2,2, 1, 2, 0,23,30.00,40.00,Monday
3168,164996.4972069734
3217,1292924.9669003931
2,2, 1, 2, 0,23,40.00,50.00,Monday
3168,232433.95905687346
3217,1252462.6060725753
2,2, 1, 2, 0,23,50.00,60.00,Monday
3168,345194.31314229727
3217,1213912.756591071
2,2, 1, 2, 0,24, 0.00,10.00,Monday
3168,377364.1906111326
3217,1075712.2097392904
2,2, 1, 2, 0,24,10.00,20.00,Monday
3168,428966.4331712003
3217,1054933.1277672239
2,2, 1, 2, 0,24,20.00,30.00,Monday
3168,519554.41389824264
3217,1039827.2088066048
2,2, 1, 2, 0,24,30.00,40.00,Monday
3168,550564.1684619082
3217,1021923.1944729222
2,2, 1, 2, 0,24,40.00,50.00,Monday
3168,605839.8680770099
3217,1004687.2036738627
2,2, 1, 2, 0,24,50.00,60.00,Monday
3168,648383.119788098
3217,988301.8500852628
2,3, 1, 3, 0, 1, 0.00,10.00,Tuesday
3168,842381.1920484906
3217,607319.8205241755
2,3, 1, 3, 0, 1,10.00,20.00,Tuesday
3168,905737.0265498233
3217,583736.7501738692
2,3, 1, 3, 0, 1,20.00,30.00,Tuesday
3168,966712.9721453064
3217,565954.8876760746
2,3, 1, 3, 0, 1,30.00,40.00,Tuesday
3168,1068527.3467184422
3217,549235.550489709
2,3, 1, 3, 0, 1,40.00,50.00,Tuesday
3168,1153221.283242645
3217,533151.9890585953
2,3, 1, 3, 0, 1,50.00,60.00,Tuesday
3168,1357758.2274103055
3217,517740.3017053521
2,3, 1, 3, 0, 2, 0.00,10.00,Tuesday
3168,1366104.0419564084
3217,503048.4716287449
2,3, 1, 3, 0, 2,10.00,20.00,Tuesday
3168,1396340.851696294
3217,489225.1696609505
2,3, 1, 3, 0, 2,20.00,30.00,Tuesday
3168,1415116.8614374804
3217,476322.99740937364
2,3, 1, 3, 0, 2,30.00,40.00,Tuesday
3168,1422914.9799877792
3217,464492.0416455798
2,3, 1, 3, 0, 2,40.00,50.00,Tuesday
3168,1423250.8911874988
3217,453451.09123212897
2,3, 1, 3, 0, 2,50.00,60.00,Tuesday
3168,1417562.1926995518
3217,443096.4581267096
2,3, 1, 3, 0, 3, 0.00,10.00,Tuesday
3168,1474046.6497943476
3217,433354.59957529214
2,3, 1, 3, 0, 3,10.00,20.00,Tuesday
3168,1532123.7509009398
3217,424004.03485681425
2,3, 1, 3, 0, 3,20.00,30.00,Tuesday
3168,1589060.3451370697
3217,414877.4041607516
2,3, 1, 3, 0, 3,30.00,40.00,Tuesday
3168,1663333.00977414
3217,405886.6459677609
2,3, 1, 3, 0, 3,40.00,50.00,Tuesday
3168,1716665.2301124588
3217,396990.9276131261
2,3, 1, 3, 0, 3,50.00,60.00,Tuesday
3168,1777691.4574161693
3217,388179.5988474032
2,3, 1, 3, 0, 4, 0.00,10.00,Tuesday
3168,1833152.9844294693
3217,379454.6489839232
2,3, 1, 3, 0, 4,10.00,20.00,Tuesday
3168,1885895.2719802107
3217,370820.7111460058
2,3, 1, 3, 0, 4,20.00,30.00,Tuesday
3168,1938696.974207753
3217,362277.50299948215
2,3, 1, 3, 0, 4,30.00,40.00,Tuesday
3168,1990261.4597853879
3217,353821.38792628504
2,3, 1, 3, 0, 4,40.00,50.00,Tuesday
3168,2052410.3366864654
3217,345447.97341219045
2,3, 1, 3, 0, 4,50.00,60.00,Tuesday
3168,2112235.167033023
3217,337152.87377905095
2,3, 1, 3, 0, 5, 0.00,10.00,Tuesday
3168,2261124.6597376913
3217,328749.59670212324
2,3, 1, 3, 0, 5,10.00,20.00,Tuesday
3168,2413371.6904690727
3217,320261.1430201931
2,3, 1, 3, 0, 5,20.00,30.00,Tuesday
3168,2565421.772318447
3217,311566.29424044647
2,3, 1, 3, 0, 5,30.00,40.00,Tuesday
3168,2718839.3639701344
3217,302595.4106835329
2,3, 1, 3, 0, 5,40.00,50.00,Tuesday
3168,2873616.084077103
3217,293373.52334086655
2,3, 1, 3, 0, 5,50.00,60.00,Tuesday
3168,3029680.3508198992
3217,283941.5585376973
2,3, 1, 3, 0, 6, 0.00,10.00,Tuesday
3168,0.0
3217,0.0
2,3, 1, 3, 0, 6,10.00,20.00,Tuesday
3168,0.0
3217,0.0
2,3, 1, 3, 0, 6,20.00,30.00,Tuesday
3168,0.0
3217,0.0
2,3, 1, 3, 0, 6,30.00,40.00,Tuesday
3168,0.0
3217,0.0
2,3, 1, 3, 0, 6,40.00,50.00,Tuesday
3168,0.0
3217,0.0
2,3, 1, 3, 0, 6,50.00,60.00,Tuesday
3168,0.0
3217,0.0
2,3, 1, 3, 0, 7, 0.00,10.00,Tuesday
3168,0.0
3217,0.0
2,3, 1, 3, 0, 7,10.00,20.00,Tuesday
3168,5004364.718317239
3217,1272672.6945671411
2,3, 1, 3, 0, 7,20.00,30.00,Tuesday
3168,0.0
3217,0.0
2,3, 1, 3, 0, 7,30.00,40.00,Tuesday
3168,2008820.2343295137
3217,859883.2039448607
2,3, 1, 3, 0, 7,40.00,50.00,Tuesday
3168,2775706.3347910414
3217,840524.2092160231
2,3, 1, 3, 0, 7,50.00,60.00,Tuesday
3168,1821065.038322264
3217,717747.9006891767
2,3, 1, 3, 0, 8, 0.00,10.00,Tuesday
3168,7327063.401605241
3217,1127338.7163590507
2,3, 1, 3, 0, 8,10.00,20.00,Tuesday
3168,7417054.3795753
3217,1164674.0845905112
2,3, 1, 3, 0, 8,20.00,30.00,Tuesday
3168,6342031.782458995
3217,1180114.1239819748
2,3, 1, 3, 0, 8,30.00,40.00,Tuesday
3168,5823659.963883915
3217,1193840.1437821162
2,3, 1, 3, 0, 8,40.00,50.00,Tuesday
3168,5401998.08286174
3217,1208396.1008779593
2,3, 1, 3, 0, 8,50.00,60.00,Tuesday
3168,4975929.296567615
3217,1225455.2904436102
2,3, 1, 3, 0, 9, 0.00,10.00,Tuesday
3168,0.0
3217,8889276.306617105
2,3, 1, 3, 0, 9,10.00,20.00,Tuesday
3168,0.0
3217,10183387.30269573
2,3, 1, 3, 0, 9,20.00,30.00,Tuesday
3168,0.0
3217,10998687.555368917
2,3, 1, 3, 0, 9,30.00,40.00,Tuesday
3168,0.0
3217,12407398.681560699
2,3, 1, 3, 0, 9,40.00,50.00,Tuesday
3168,0.0
3217,14627886.53101246
2,3, 1, 3, 0, 9,50.00,60.00,Tuesday
3168,0.0
3217,15749444.91999322
2,3, 1, 3, 0,10, 0.00,10.00,Tuesday
3168,0.0
3217,17872407.396336883
2,3, 1, 3, 0,10,10.00,20.00,Tuesday
3168,0.0
3217,19417817.04837087
2,3, 1, 3, 0,10,20.00,30.00,Tuesday
3168,0.0
3217,20942141.53194
2,3, 1, 3, 0,10,30.00,40.00,Tuesday
3168,0.0
3217,22155506.547129728
2,3, 1, 3, 0,10,40.00,50.00,Tuesday
3168,0.0
3217,23278081.700183313
2,3, 1, 3, 0,10,50.00,60.00,Tuesday
3168,0.0
3217,24337011.460749503
2,3, 1, 3, 0,11, 0.00,10.00,Tuesday
3168,0.0
3217,25386398.153520428
2,3, 1, 3, 0,11,10.00,20.00,Tuesday
3168,0.0
3217,26374077.769448303
2,3, 1, 3, 0,11,20.00,30.00,Tuesday
3168,0.0
3217,27306500.467758592
2,3, 1, 3, 0,11,30.00,40.00,Tuesday
3168,0.0
3217,28210891.826967865
2,3, 1, 3, 0,11,40.00,50.00,Tuesday
3168,0.0
3217,29156466.50213317
2,3, 1, 3, 0,11,50.00,60.00,Tuesday
3168,0.0
3217,30029884.94235143
2,3, 1, 3, 0,12, 0.00,10.00,Tuesday
3168,0.0
3217,30793986.931837015
2,3, 1, 3, 0,12,10.00,20.00,Tuesday
3168,0.0
3217,31535561.018002678
2,3, 1, 3, 0,12,20.00,30.00,Tuesday
3168,0.0
3217,32187533.26740895
2,3, 1, 3, 0,12,30.00,40.00,Tuesday
3168,0.0
3217,32696734.144421883
2,3, 1, 3, 0,12,40.00,50.00,Tuesday
3168,0.0
3217,33166576.092231903
2,3, 1, 3, 0,12,50.00,60.00,Tuesday
3168,0.0
3217,33637441.429151095
2,3, 1, 3, 0,13, 0.00,10.00,Tuesday
3168,0.0
3217,26774277.583596308
2,3, 1, 3, 0,13,10.00,20.00,Tuesday
3168,0.0
3217,27117655.675580762
2,3, 1, 3, 0,13,20.00,30.00,Tuesday
3168,0.0
3217,27513241.46214334
2,3, 1, 3, 0,13,30.00,40.00,Tuesday
3168,0.0
3217,28103670.254412886
2,3, 1, 3, 0,13,40.00,50.00,Tuesday
3168,0.0
3217,28726205.77227382
2,3, 1, 3, 0,13,50.00,60.00,Tuesday
3168,0.0
3217,29457082.830129225
2,3, 1, 3, 0,14, 0.00,10.00,Tuesday
3168,0.0
3217,36798895.43472709
2,3, 1, 3, 0,14,10.00,20.00,Tuesday
3168,0.0
3217,38046410.67946707
2,3, 1, 3, 0,14,20.00,30.00,Tuesday
3168,0.0
3217,38942737.92420436
2,3, 1, 3, 0,14,30.00,40.00,Tuesday
3168,0.0
3217,39477832.32175051
2,3, 1, 3, 0,14,40.00,50.00,Tuesday
3168,0.0
3217,40049389.73435194
2,3, 1, 3, 0,14,50.00,60.00,Tuesday
3168,0.0
3217,40628792.11817808
2,3, 1, 3, 0,15, 0.00,10.00,Tuesday
3168,0.0
3217,41213088.78683058
2,3, 1, 3, 0,15,10.00,20.00,Tuesday
3168,0.0
3217,41719005.401340455
2,3, 1, 3, 0,15,20.00,30.00,Tuesday
3168,0.0
3217,42179432.06718687
2,3, 1, 3, 0,15,30.00,40.00,Tuesday
3168,0.0
3217,42906368.38883659
2,3, 1, 3, 0,15,40.00,50.00,Tuesday
3168,0.0
3217,43693019.179679625
2,3, 1, 3, 0,15,50.00,60.00,Tuesday
3168,0.0
3217,44489536.48155009
2,3, 1, 3, 0,16, 0.00,10.00,Tuesday
3168,0.0
3217,45032052.54243672
2,3, 1, 3, 0,16,10.00,20.00,Tuesday
3168,0.0
3217,45556429.91858459
2,3, 1, 3, 0,16,20.00,30.00,Tuesday
3168,0.0
3217,45997077.14450975
2,3, 1, 3, 0,16,30.00,40.00,Tuesday
3168,0.0
3217,46326915.093476586
2,3, 1, 3, 0,16,40.00,50.00,Tuesday
3168,0.0
3217,46572378.89800928
2,3, 1, 3, 0,16,50.00,60.00,Tuesday
3168,0.0
3217,46744534.51234481
2,3, 1, 3, 0,17, 0.00,10.00,Tuesday
3168,0.0
3217,46782146.66834404
2,3, 1, 3, 0,17,10.00,20.00,Tuesday
3168,0.0
3217,46712055.19568117
2,3, 1, 3, 0,17,20.00,30.00,Tuesday
3168,0.0
3217,46584388.84149477
2,3, 1, 3, 0,17,30.00,40.00,Tuesday
3168,0.0
3217,44758701.280472375
2,3, 1, 3, 0,17,40.00,50.00,Tuesday
3168,0.0
3217,42654450.41348811
2,3, 1, 3, 0,17,50.00,60.00,Tuesday
3168,0.0
3217,40616951.60746312
2,3, 1, 3, 0,18, 0.00,10.00,Tuesday
3168,0.0
3217,21029198.31617755
2,3, 1, 3, 0,18,10.00,20.00,Tuesday
3168,0.0
3217,18039755.645760633
2,3, 1, 3, 0,18,20.00,30.00,Tuesday
3168,0.0
3217,15510394.000774207
2,3, 1, 3, 0,18,30.00,40.00,Tuesday
3168,0.0
3217,14398063.286435032
2,3, 1, 3, 0,18,40.00,50.00,Tuesday
3168,0.0