Program Version,EnergyPlus, Version 22.1.0-ed759b17ee, YMD=2022.11.18 19:12
1,5,Environment Title[],Latitude[deg],Longitude[deg],Time Zone[],Elevation[m]
2,8,Day of Simulation[],Month[],Day of Month[],DST Indicator[1=yes 0=no],Hour[],StartMinute[],EndMinute[],DayType
3,5,Cumulative Day of Simulation[],Month[],Day of Month[],DST Indicator[1=yes 0=no],DayType  ! When Daily Meters Requested
4,2,Cumulative Days of Simulation[],Month[]  ! When Monthly Meters Requested
5,1,Cumulative Days of Simulation[] ! When Run Period Meters Requested
6,1,Calendar Year of Simulation[] ! When Annual Meters Requested
3217,1,DistrictCooling:Facility [J] !TimeStep
3168,1,DistrictHeating:Facility [J] !TimeStep
End of Data Dictionary
1,RUN PERIOD 1,  32.17,-110.88,  -7.00, 809.00
2,1, 1, 1, 0, 1, 0.00,10.00,Sunday
3168,8352350.435840457
3217,0.0
2,1, 1, 1, 0, 1,10.00,20.00,Sunday
3168,8703331.115542687
3217,0.0
2,1, 1, 1, 0, 1,20.00,30.00,Sunday
3168,9030198.751872646
3217,0.0
2,1, 1, 1, 0, 1,30.00,40.00,Sunday
3168,9332687.962863976
3217,0.0
2,1, 1, 1, 0, 1,40.00,50.00,Sunday
3168,9620766.732481193
3217,0.0
2,1, 1, 1, 0, 1,50.00,60.00,Sunday
3168,9870449.743234174
3217,0.0
2,1, 1, 1, 0, 2, 0.00,10.00,Sunday
3168,10005989.920754455
3217,0.0
2,1, 1, 1, 0, 2,10.00,20.00,Sunday
3168,10142248.740920443
3217,0.0
2,1, 1, 1, 0, 2,20.00,30.00,Sunday
3168,10273782.578645
3217,0.0
2,1, 1, 1, 0, 2,30.00,40.00,Sunday
3168,10402168.981510438
3217,0.0
2,1, 1, 1, 0, 2,40.00,50.00,Sunday
3168,10528055.03267283
3217,0.0
2,1, 1, 1, 0, 2,50.00,60.00,Sunday
3168,10650628.556787973
3217,0.0
2,1, 1, 1, 0, 3, 0.00,10.00,Sunday
3168,10597282.600366632
3217,0.0
2,1, 1, 1, 0, 3,10.00,20.00,Sunday
3168,10570966.047776544
3217,0.0
2,1, 1, 1, 0, 3,20.00,30.00,Sunday
3168,10508356.981756652
3217,0.0
2,1, 1, 1, 0, 3,30.00,40.00,Sunday
3168,10443121.606381966
3217,0.0
2,1, 1, 1, 0, 3,40.00,50.00,Sunday
3168,10370958.535163268
3217,0.0
2,1, 1, 1, 0, 3,50.00,60.00,Sunday
3168,10288212.175802309
3217,0.0
2,1, 1, 1, 0, 4, 0.00,10.00,Sunday
3168,10440868.015880037
3217,0.0
2,1, 1, 1, 0, 4,10.00,20.00,Sunday
3168,10590053.567758482
3217,0.0
2,1, 1, 1, 0, 4,20.00,30.00,Sunday
3168,10744142.736075057
3217,0.0
2,1, 1, 1, 0, 4,30.00,40.00,Sunday
3168,10895906.010446768
3217,0.0
2,1, 1, 1, 0, 4,40.00,50.00,Sunday
3168,11047878.851705592
3217,0.0
2,1, 1, 1, 0, 4,50.00,60.00,Sunday
3168,11202458.834773745
3217,0.0
2,1, 1, 1, 0, 5, 0.00,10.00,Sunday
3168,11389968.978184793
3217,0.0
2,1, 1, 1, 0, 5,10.00,20.00,Sunday
3168,11577248.615799181
3217,0.0
2,1, 1, 1, 0, 5,20.00,30.00,Sunday
3168,11765216.49307217
3217,0.0
2,1, 1, 1, 0, 5,30.00,40.00,Sunday
3168,11950485.610920254
3217,0.0
2,1, 1, 1, 0, 5,40.00,50.00,Sunday
3168,12140427.860460065
3217,0.0
2,1, 1, 1, 0, 5,50.00,60.00,Sunday
3168,12330698.77710774
3217,0.0
2,1, 1, 1, 0, 6, 0.00,10.00,Sunday
3168,12402534.445178466
3217,0.0
2,1, 1, 1, 0, 6,10.00,20.00,Sunday
3168,12472695.57971847
3217,0.0
2,1, 1, 1, 0, 6,20.00,30.00,Sunday
3168,12542014.363265323
3217,0.0
2,1, 1, 1, 0, 6,30.00,40.00,Sunday
3168,12608531.898255426
3217,0.0
2,1, 1, 1, 0, 6,40.00,50.00,Sunday
3168,12673688.702071566
3217,0.0
2,1, 1, 1, 0, 6,50.00,60.00,Sunday
3168,12736254.742275769
3217,0.0
2,1, 1, 1, 0, 7, 0.00,10.00,Sunday
3168,12095763.979475703
3217,0.0
2,1, 1, 1, 0, 7,10.00,20.00,Sunday
3168,12106500.358307572
3217,0.0
2,1, 1, 1, 0, 7,20.00,30.00,Sunday
3168,12132948.079510253
3217,0.0
2,1, 1, 1, 0, 7,30.00,40.00,Sunday
3168,12158579.151586281
3217,0.0
2,1, 1, 1, 0, 7,40.00,50.00,Sunday
3168,12178062.78864547
3217,0.0
2,1, 1, 1, 0, 7,50.00,60.00,Sunday
3168,12193229.194069607
3217,0.0
2,1, 1, 1, 0, 8, 0.00,10.00,Sunday
3168,12509573.768675508
3217,0.0
2,1, 1, 1, 0, 8,10.00,20.00,Sunday
3168,12824044.041021742
3217,0.0
2,1, 1, 1, 0, 8,20.00,30.00,Sunday
3168,12224147.22566523
3217,0.0
2,1, 1, 1, 0, 8,30.00,40.00,Sunday
3168,11634347.110153332
3217,0.0
2,1, 1, 1, 0, 8,40.00,50.00,Sunday
3168,10948047.843344819
3217,0.0
2,1, 1, 1, 0, 8,50.00,60.00,Sunday
3168,10314785.101778971
3217,0.0
2,1, 1, 1, 0, 9, 0.00,10.00,Sunday
3168,9150588.537088452
3217,0.0
2,1, 1, 1, 0, 9,10.00,20.00,Sunday
3168,8139462.916701643
3217,0.0
2,1, 1, 1, 0, 9,20.00,30.00,Sunday
3168,7165912.579304447
3217,0.0
2,1, 1, 1, 0, 9,30.00,40.00,Sunday
3168,6438879.648573279
3217,0.0
2,1, 1, 1, 0, 9,40.00,50.00,Sunday
3168,5824596.229567355
3217,0.0
2,1, 1, 1, 0, 9,50.00,60.00,Sunday
3168,5241567.412645346
3217,0.0
2,1, 1, 1, 0,10, 0.00,10.00,Sunday
3168,5096996.421364047
3217,0.0
2,1, 1, 1, 0,10,10.00,20.00,Sunday
3168,4964520.234716446
3217,0.0
2,1, 1, 1, 0,10,20.00,30.00,Sunday
3168,4829486.549803967
3217,0.0
2,1, 1, 1, 0,10,30.00,40.00,Sunday
3168,4681382.808416472
3217,0.0
2,1, 1, 1, 0,10,40.00,50.00,Sunday
3168,4579123.148495507
3217,0.0
2,1, 1, 1, 0,10,50.00,60.00,Sunday
3168,4442681.498925704
3217,0.0
2,1, 1, 1, 0,11, 0.00,10.00,Sunday
3168,4205341.721018438
3217,0.0
2,1, 1, 1, 0,11,10.00,20.00,Sunday
3168,3963143.055368919
3217,167034.99340261036
2,1, 1, 1, 0,11,20.00,30.00,Sunday
3168,3736061.663998326
3217,234524.81119427842
2,1, 1, 1, 0,11,30.00,40.00,Sunday
3168,3530721.773403639
3217,344146.3325081479
2,1, 1, 1, 0,11,40.00,50.00,Sunday
3168,3330340.2055396223
3217,800664.1935065389
2,1, 1, 1, 0,11,50.00,60.00,Sunday
3168,3124324.843799516
3217,1107070.378382667
2,1, 1, 1, 0,12, 0.00,10.00,Sunday
3168,2805018.8234371976
3217,1448792.8563297172
2,1, 1, 1, 0,12,10.00,20.00,Sunday
3168,2531124.5197456283
3217,1856430.5034380164
2,1, 1, 1, 0,12,20.00,30.00,Sunday
3168,2290856.668109578
3217,2351131.706928036
2,1, 1, 1, 0,12,30.00,40.00,Sunday
3168,2044032.823330225
3217,2912232.0980027756
2,1, 1, 1, 0,12,40.00,50.00,Sunday
3168,1844815.4490967614
3217,3064817.5824368247
2,1, 1, 1, 0,12,50.00,60.00,Sunday
3168,1615139.1680287328
3217,3322718.2921255343
2,1, 1, 1, 0,13, 0.00,10.00,Sunday
3168,1450395.874623017
3217,3467284.818803012
2,1, 1, 1, 0,13,10.00,20.00,Sunday
3168,1291926.8818187206
3217,3572843.2420943133
2,1, 1, 1, 0,13,20.00,30.00,Sunday
3168,1174492.6449233869
3217,3740757.610638568
2,1, 1, 1, 0,13,30.00,40.00,Sunday
3168,1069060.5125495784
3217,4142045.1598132034
2,1, 1, 1, 0,13,40.00,50.00,Sunday
3168,971418.8267509701
3217,4593705.066220406
2,1, 1, 1, 0,13,50.00,60.00,Sunday
3168,852701.1382422628
3217,4990096.70498874
2,1, 1, 1, 0,14, 0.00,10.00,Sunday
3168,758046.6887843227
3217,5440469.809968176
2,1, 1, 1, 0,14,10.00,20.00,Sunday
3168,639298.336036352
3217,5786605.324324485
2,1, 1, 1, 0,14,20.00,30.00,Sunday
3168,538281.9344380666
3217,6198984.383787665
2,1, 1, 1, 0,14,30.00,40.00,Sunday
3168,500650.5071277803
3217,6415335.579639744
2,1, 1, 1, 0,14,40.00,50.00,Sunday
3168,474895.65469224035
3217,6575471.700497587
2,1, 1, 1, 0,14,50.00,60.00,Sunday
3168,450434.14457687753
3217,6711763.129732391
2,1, 1, 1, 0,15, 0.00,10.00,Sunday
3168,426973.18838066707
3217,6803661.377583895
2,1, 1, 1, 0,15,10.00,20.00,Sunday
3168,402180.7846005685
3217,6873114.174094461
2,1, 1, 1, 0,15,20.00,30.00,Sunday
3168,378041.0761613355
3217,6920657.565646441
2,1, 1, 1, 0,15,30.00,40.00,Sunday
3168,348953.2523782487
3217,6920831.551990558
2,1, 1, 1, 0,15,40.00,50.00,Sunday
3168,325791.35810729204
3217,6896762.830799231
2,1, 1, 1, 0,15,50.00,60.00,Sunday
3168,302965.083706766
3217,7033594.942310137
2,1, 1, 1, 0,16, 0.00,10.00,Sunday
3168,290722.88404597196
3217,7312490.096373562
2,1, 1, 1, 0,16,10.00,20.00,Sunday
3168,279069.3963886646
3217,7330041.092511619
2,1, 1, 1, 0,16,20.00,30.00,Sunday
3168,267855.4886788042
3217,7472350.122909965
2,1, 1, 1, 0,16,30.00,40.00,Sunday
3168,261469.45899584392
3217,7737216.198385502
2,1, 1, 1, 0,16,40.00,50.00,Sunday
3168,256859.2333121444
3217,7696040.535746261
2,1, 1, 1, 0,16,50.00,60.00,Sunday
3168,252297.32541110856
3217,7720804.440572316
2,1, 1, 1, 0,17, 0.00,10.00,Sunday
3168,252886.25179983358
3217,7681498.209994025
2,1, 1, 1, 0,17,10.00,20.00,Sunday
3168,271639.376917103
3217,7686523.125499542
2,1, 1, 1, 0,17,20.00,30.00,Sunday
3168,280926.55783192604
3217,7719853.168216898
2,1, 1, 1, 0,17,30.00,40.00,Sunday
3168,312093.1392516955
3217,6601874.91533211
2,1, 1, 1, 0,17,40.00,50.00,Sunday
3168,353866.9298955138
3217,5307057.622219878
2,1, 1, 1, 0,17,50.00,60.00,Sunday
3168,395629.48507259425
3217,3916682.8184990366
2,1, 1, 1, 0,18, 0.00,10.00,Sunday
3168,465155.1362606871
3217,2415404.7267740127
2,1, 1, 1, 0,18,10.00,20.00,Sunday
3168,539764.9280589655
3217,1313888.260304996
2,1, 1, 1, 0,18,20.00,30.00,Sunday
3168,618720.3625635549
3217,576995.7951396399
2,1, 1, 1, 0,18,30.00,40.00,Sunday
3168,701758.1413052541
3217,447230.6830144124
2,1, 1, 1, 0,18,40.00,50.00,Sunday
3168,816647.0777167047
3217,353842.1638727909
2,1, 1, 1, 0,18,50.00,60.00,Sunday
3168,949671.57490924
3217,271586.94399761735
2,1, 1, 1, 0,19, 0.00,10.00,Sunday
3168,1244859.1758403007
3217,143139.857021888
2,1, 1, 1, 0,19,10.00,20.00,Sunday
3168,1375786.9344320074
3217,68372.8770487709
2,1, 1, 1, 0,19,20.00,30.00,Sunday
3168,1497840.3966861241
3217,0.0
2,1, 1, 1, 0,19,30.00,40.00,Sunday
3168,1616416.4414214785
3217,0.0
2,1, 1, 1, 0,19,40.00,50.00,Sunday
3168,1767750.1198758837
3217,0.0
2,1, 1, 1, 0,19,50.00,60.00,Sunday
3168,1921673.2831324975
3217,0.0
2,1, 1, 1, 0,20, 0.00,10.00,Sunday
3168,2055069.5579638092
3217,0.0
2,1, 1, 1, 0,20,10.00,20.00,Sunday
3168,2183632.6390980654
3217,0.0
2,1, 1, 1, 0,20,20.00,30.00,Sunday
3168,2276222.549530881
3217,0.0
2,1, 1, 1, 0,20,30.00,40.00,Sunday
3168,2382696.162303669
3217,0.0
2,1, 1, 1, 0,20,40.00,50.00,Sunday
3168,2474038.1272707963
3217,0.0
2,1, 1, 1, 0,20,50.00,60.00,Sunday
3168,2559596.098498786
3217,0.0
2,1, 1, 1, 0,21, 0.00,10.00,Sunday
3168,2590183.3730742224
3217,0.0
2,1, 1, 1, 0,21,10.00,20.00,Sunday
3168,2613835.4034040277
3217,0.0
2,1, 1, 1, 0,21,20.00,30.00,Sunday
3168,2630768.182482402
3217,0.0
2,1, 1, 1, 0,21,30.00,40.00,Sunday
3168,2640903.544698613
3217,0.0
2,1, 1, 1, 0,21,40.00,50.00,Sunday
3168,2650571.710029245
3217,0.0
2,1, 1, 1, 0,21,50.00,60.00,Sunday
3168,2719679.137389974
3217,0.0
2,1, 1, 1, 0,22, 0.00,10.00,Sunday
3168,2968317.7611848344
3217,0.0
2,1, 1, 1, 0,22,10.00,20.00,Sunday
3168,3247758.963046348
3217,0.0
2,1, 1, 1, 0,22,20.00,30.00,Sunday
3168,3575985.000835518
3217,0.0
2,1, 1, 1, 0,22,30.00,40.00,Sunday
3168,3929579.906669557
3217,0.0
2,1, 1, 1, 0,22,40.00,50.00,Sunday
3168,4298510.764991865
3217,0.0
2,1, 1, 1, 0,22,50.00,60.00,Sunday
3168,4660977.836055699
3217,0.0
2,1, 1, 1, 0,23, 0.00,10.00,Sunday
3168,4858943.847263069
3217,0.0
2,1, 1, 1, 0,23,10.00,20.00,Sunday
3168,5046658.290543973
3217,0.0
2,1, 1, 1, 0,23,20.00,30.00,Sunday
3168,5231484.0068251435
3217,0.0
2,1, 1, 1, 0,23,30.00,40.00,Sunday
3168,5412923.316957838
3217,0.0
2,1, 1, 1, 0,23,40.00,50.00,Sunday
3168,5593444.046040769
3217,0.0
2,1, 1, 1, 0,23,50.00,60.00,Sunday
3168,5766398.260242585
3217,0.0
2,1, 1, 1, 0,24, 0.00,10.00,Sunday
3168,6119924.89535482
3217,0.0
2,1, 1, 1, 0,24,10.00,20.00,Sunday
3168,6471802.224080955
3217,0.0
2,1, 1, 1, 0,24,20.00,30.00,Sunday
3168,6861803.445603166
3217,0.0
2,1, 1, 1, 0,24,30.00,40.00,Sunday
3168,7227533.048974362
3217,0.0
2,1, 1, 1, 0,24,40.00,50.00,Sunday
3168,7612347.080824016
3217,0.0
2,1, 1, 1, 0,24,50.00,60.00,Sunday
3168,7996921.399915116
3217,0.0
2,2, 1, 2, 0, 1, 0.00,10.00,Monday
3168,7714865.993774764
3217,0.0
2,2, 1, 2, 0, 1,10.00,20.00,Monday
3168,7776765.165835091
3217,0.0
2,2, 1, 2, 0, 1,20.00,30.00,Monday
3168,7842030.924916923
3217,0.0
2,2, 1, 2, 0, 1,30.00,40.00,Monday
3168,7901369.492940688
3217,0.0
2,2, 1, 2, 0, 1,40.00,50.00,Monday
3168,7955485.094704681
3217,0.0
2,2, 1, 2, 0, 1,50.00,60.00,Monday
3168,8005534.814855844
3217,0.0
2,2, 1, 2, 0, 2, 0.00,10.00,Monday
3168,8176146.547867378
3217,0.0
2,2, 1, 2, 0, 2,10.00,20.00,Monday
3168,8341147.375495388
3217,0.0
2,2, 1, 2, 0, 2,20.00,30.00,Monday
3168,8500211.860007402
3217,0.0
2,2, 1, 2, 0, 2,30.00,40.00,Monday
3168,8652352.998864558
3217,0.0
2,2, 1, 2, 0, 2,40.00,50.00,Monday
3168,8797972.30165146
3217,0.0
2,2, 1, 2, 0, 2,50.00,60.00,Monday
3168,8936108.763221156
3217,0.0
2,2, 1, 2, 0, 3, 0.00,10.00,Monday
3168,8696904.546139153
3217,0.0
2,2, 1, 2, 0, 3,10.00,20.00,Monday
3168,8451136.414934652
3217,0.0
2,2, 1, 2, 0, 3,20.00,30.00,Monday
3168,8198644.064193269
3217,0.0
2,2, 1, 2, 0, 3,30.00,40.00,Monday
3168,7940334.202825073
3217,0.0
2,2, 1, 2, 0, 3,40.00,50.00,Monday
3168,7678090.08967186
3217,0.0
2,2, 1, 2, 0, 3,50.00,60.00,Monday
3168,7415293.918648972
3217,0.0
2,2, 1, 2, 0, 4, 0.00,10.00,Monday
3168,7768146.201227944
3217,0.0
2,2, 1, 2, 0, 4,10.00,20.00,Monday
3168,8114482.3592586545
3217,0.0
2,2, 1, 2, 0, 4,20.00,30.00,Monday
3168,8451329.635215694
3217,0.0
2,2, 1, 2, 0, 4,30.00,40.00,Monday
3168,8776546.053873152
3217,0.0
2,2, 1, 2, 0, 4,40.00,50.00,Monday
3168,9089004.64138429
3217,0.0
2,2, 1, 2, 0, 4,50.00,60.00,Monday
3168,9387772.735379323
3217,0.0
2,2, 1, 2, 0, 5, 0.00,10.00,Monday
3168,9284280.332691582
3217,0.0
2,2, 1, 2, 0, 5,10.00,20.00,Monday
3168,9172592.099039136
3217,0.0
2,2, 1, 2, 0, 5,20.00,30.00,Monday
3168,9051293.589528631
3217,0.0
2,2, 1, 2, 0, 5,30.00,40.00,Monday
3168,8928213.709393568
3217,0.0
2,2, 1, 2, 0, 5,40.00,50.00,Monday
3168,8825497.099247888
3217,0.0
2,2, 1, 2, 0, 5,50.00,60.00,Monday
3168,8679172.04700752
3217,0.0
2,2, 1, 2, 0, 6, 0.00,10.00,Monday
3168,0.0
3217,0.0
2,2, 1, 2, 0, 6,10.00,20.00,Monday
3168,0.0
3217,0.0
2,2, 1, 2, 0, 6,20.00,30.00,Monday
3168,0.0
3217,0.0
2,2, 1, 2, 0, 6,30.00,40.00,Monday
3168,0.0
3217,0.0
2,2, 1, 2, 0, 6,40.00,50.00,Monday
3168,0.0
3217,0.0
2,2, 1, 2, 0, 6,50.00,60.00,Monday
3168,0.0
3217,0.0
2,2, 1, 2, 0, 7, 0.00,10.00,Monday
3168,0.0
3217,0.0
2,2, 1, 2, 0, 7,10.00,20.00,Monday
3168,19638524.576893594
3217,0.0
2,2, 1, 2, 0, 7,20.00,30.00,Monday
3168,683507.2574426623
3217,0.0
2,2, 1, 2, 0, 7,30.00,40.00,Monday
3168,11714265.338640109
3217,0.0
2,2, 1, 2, 0, 7,40.00,50.00,Monday
3168,10265137.485818125
3217,0.0
2,2, 1, 2, 0, 7,50.00,60.00,Monday
3168,8893069.876126816
3217,0.0
2,2, 1, 2, 0, 8, 0.00,10.00,Monday
3168,17783018.491711784
3217,0.0
2,2, 1, 2, 0, 8,10.00,20.00,Monday
3168,17652284.457594648
3217,0.0
2,2, 1, 2, 0, 8,20.00,30.00,Monday
3168,16240568.55049315
3217,0.0
2,2, 1, 2, 0, 8,30.00,40.00,Monday
3168,15255689.205639753
3217,0.0
2,2, 1, 2, 0, 8,40.00,50.00,Monday
3168,14539118.34225437
3217,0.0
2,2, 1, 2, 0, 8,50.00,60.00,Monday
3168,13913438.22370339
3217,0.0
2,2, 1, 2, 0, 9, 0.00,10.00,Monday
3168,810906.9402402441
3217,3547099.2051269254
2,2, 1, 2, 0, 9,10.00,20.00,Monday
3168,541719.2949890933
3217,5033894.821581693
2,2, 1, 2, 0, 9,20.00,30.00,Monday
3168,368441.2715697786
3217,6538051.96456427
2,2, 1, 2, 0, 9,30.00,40.00,Monday
3168,176003.17327684897
3217,7221396.289667139
2,2, 1, 2, 0, 9,40.00,50.00,Monday
3168,12147.98668843168
3217,8654727.33556827
2,2, 1, 2, 0, 9,50.00,60.00,Monday
3168,0.0
3217,9778696.46146377
2,2, 1, 2, 0,10, 0.00,10.00,Monday
3168,0.0
3217,10771247.33209254
2,2, 1, 2, 0,10,10.00,20.00,Monday
3168,0.0
3217,11523802.833955836
2,2, 1, 2, 0,10,20.00,30.00,Monday
3168,0.0
3217,12463360.535610763
2,2, 1, 2, 0,10,30.00,40.00,Monday
3168,0.0
3217,13758762.739552336
2,2, 1, 2, 0,10,40.00,50.00,Monday
3168,0.0
3217,14225302.644527394
2,2, 1, 2, 0,10,50.00,60.00,Monday
3168,0.0
3217,14947205.408406377
2,2, 1, 2, 0,11, 0.00,10.00,Monday
3168,0.0
3217,15578838.551596306
2,2, 1, 2, 0,11,10.00,20.00,Monday
3168,0.0
3217,16169126.717043888
2,2, 1, 2, 0,11,20.00,30.00,Monday
3168,0.0
3217,16763915.594254952
2,2, 1, 2, 0,11,30.00,40.00,Monday
3168,0.0
3217,17274731.83395378
2,2, 1, 2, 0,11,40.00,50.00,Monday
3168,0.0
3217,17856431.239171524
2,2, 1, 2, 0,11,50.00,60.00,Monday
3168,0.0
3217,18414731.169226717
2,2, 1, 2, 0,12, 0.00,10.00,Monday
3168,0.0
3217,18856072.387484666
2,2, 1, 2, 0,12,10.00,20.00,Monday
3168,0.0
3217,19265292.21564122
2,2, 1, 2, 0,12,20.00,30.00,Monday
3168,0.0
3217,19657432.49011978
2,2, 1, 2, 0,12,30.00,40.00,Monday
3168,0.0
3217,20017668.268126376
2,2, 1, 2, 0,12,40.00,50.00,Monday
3168,0.0
3217,20275454.239365853
2,2, 1, 2, 0,12,50.00,60.00,Monday
3168,0.0
3217,20612753.8129065
2,2, 1, 2, 0,13, 0.00,10.00,Monday
3168,0.0
3217,14506828.222508447
2,2, 1, 2, 0,13,10.00,20.00,Monday
3168,0.0
3217,14643853.4357235
2,2, 1, 2, 0,13,20.00,30.00,Monday
3168,0.0
3217,14871219.2415547
2,2, 1, 2, 0,13,30.00,40.00,Monday
3168,0.0
3217,15083112.456270896
2,2, 1, 2, 0,13,40.00,50.00,Monday
3168,0.0
3217,15287627.463126197
2,2, 1, 2, 0,13,50.00,60.00,Monday
3168,0.0
3217,15487364.413011905
2,2, 1, 2, 0,14, 0.00,10.00,Monday
3168,0.0
3217,22446684.76584149
2,2, 1, 2, 0,14,10.00,20.00,Monday
3168,0.0
3217,25173717.1176771
2,2, 1, 2, 0,14,20.00,30.00,Monday
3168,0.0
3217,26001345.83380269
2,2, 1, 2, 0,14,30.00,40.00,Monday
3168,0.0
3217,26427452.639946066
2,2, 1, 2, 0,14,40.00,50.00,Monday
3168,0.0
3217,27481962.693191536
2,2, 1, 2, 0,14,50.00,60.00,Monday
3168,0.0
3217,28181978.2659555
2,2, 1, 2, 0,15, 0.00,10.00,Monday
3168,0.0
3217,28611218.913944654
2,2, 1, 2, 0,15,10.00,20.00,Monday
3168,0.0
3217,28939269.50491122
2,2, 1, 2, 0,15,20.00,30.00,Monday
3168,0.0
3217,29176200.18378375
2,2, 1, 2, 0,15,30.00,40.00,Monday
3168,0.0
3217,29799484.568920486
2,2, 1, 2, 0,15,40.00,50.00,Monday
3168,0.0
3217,30479869.208360106
2,2, 1, 2, 0,15,50.00,60.00,Monday
3168,0.0
3217,31160296.21396093
2,2, 1, 2, 0,16, 0.00,10.00,Monday
3168,0.0
3217,31983187.537194513
2,2, 1, 2, 0,16,10.00,20.00,Monday
3168,0.0
3217,32825927.207014367
2,2, 1, 2, 0,16,20.00,30.00,Monday
3168,0.0
3217,33685739.34921336
2,2, 1, 2, 0,16,30.00,40.00,Monday
3168,0.0
3217,33982449.82032438
2,2, 1, 2, 0,16,40.00,50.00,Monday
3168,0.0
3217,34104373.049148306
2,2, 1, 2, 0,16,50.00,60.00,Monday
3168,0.0
3217,34196853.19174299
2,2, 1, 2, 0,17, 0.00,10.00,Monday
3168,0.0
3217,34103257.86061492
2,2, 1, 2, 0,17,10.00,20.00,Monday
3168,0.0
3217,34071742.233796045
2,2, 1, 2, 0,17,20.00,30.00,Monday
3168,0.0
3217,33950405.56141811
2,2, 1, 2, 0,17,30.00,40.00,Monday
3168,0.0
3217,33033184.134732444
2,2, 1, 2, 0,17,40.00,50.00,Monday
3168,0.0
3217,31845178.462813105
2,2, 1, 2, 0,17,50.00,60.00,Monday
3168,0.0
3217,30589858.064005896
2,2, 1, 2, 0,18, 0.00,10.00,Monday
3168,0.0
3217,12365246.608155226
2,2, 1, 2, 0,18,10.00,20.00,Monday
3168,0.0
3217,10218871.1872729
2,2, 1, 2, 0,18,20.00,30.00,Monday
3168,0.0
3217,8401367.107201843
2,2, 1, 2, 0,18,30.00,40.00,Monday
3168,0.0
3217,7678636.705997617
2,2, 1, 2, 0,18,40.00,50.00,Monday
3168,0.0
3217,7137464.342567898
2,2, 1, 2, 0,18,50.00,60.00,Monday
3168,0.0
3217,6694866.0583079
2,2, 1, 2, 0,19, 0.00,10.00,Monday
3168,0.0
3217,3913130.9448541123
2,2, 1, 2, 0,19,10.00,20.00,Monday
3168,0.0
3217,3453298.551625335
2,2, 1, 2, 0,19,20.00,30.00,Monday
3168,0.0
3217,3195689.3063290818
2,2, 1, 2, 0,19,30.00,40.00,Monday
3168,0.0
3217,3043971.7963019665
2,2, 1, 2, 0,19,40.00,50.00,Monday
3168,0.0
3217,2906588.2973133205
2,2, 1, 2, 0,19,50.00,60.00,Monday
3168,0.0
3217,2784078.3328415104
2,2, 1, 2, 0,20, 0.00,10.00,Monday
3168,0.0
3217,2965160.2730084807
2,2, 1, 2, 0,20,10.00,20.00,Monday
3168,0.0
3217,3199099.2520297104
2,2, 1, 2, 0,20,20.00,30.00,Monday
3168,0.0
3217,2951212.8189103017
2,2, 1, 2, 0,20,30.00,40.00,Monday
3168,0.0
3217,2914747.35953541
2,2, 1, 2, 0,20,40.00,50.00,Monday
3168,0.0
3217,2849897.16645368
2,2, 1, 2, 0,20,50.00,60.00,Monday
3168,0.0
3217,2789638.4725792315
2,2, 1, 2, 0,21, 0.00,10.00,Monday
3168,0.0
3217,2523071.351967479
2,2, 1, 2, 0,21,10.00,20.00,Monday
3168,0.0
3217,2417977.7283765976
2,2, 1, 2, 0,21,20.00,30.00,Monday
3168,0.0
3217,2343370.9612302096
2,2, 1, 2, 0,21,30.00,40.00,Monday
3168,0.0
3217,2275671.965650883
2,2, 1, 2, 0,21,40.00,50.00,Monday
3168,0.0
3217,2211079.9069569744
2,2, 1, 2, 0,21,50.00,60.00,Monday
3168,0.0
3217,2149045.6316512534
2,2, 1, 2, 0,22, 0.00,10.00,Monday
3168,0.0
3217,2105369.597863483
2,2, 1, 2, 0,22,10.00,20.00,Monday
3168,0.0
3217,2064620.283523338
2,2, 1, 2, 0,22,20.00,30.00,Monday
3168,0.0
3217,2027547.6312804373
2,2, 1, 2, 0,22,30.00,40.00,Monday
3168,0.0
3217,1990711.8884834307
2,2, 1, 2, 0,22,40.00,50.00,Monday
3168,0.0
3217,1956030.7657477474
2,2, 1, 2, 0,22,50.00,60.00,Monday
3168,0.0
3217,1923175.6479594258
2,2, 1, 2, 0,23, 0.00,10.00,Monday
3168,0.0
3217,1485445.7651883385
2,2, 1, 2, 0,23,10.00,20.00,Monday
3168,0.0
3217,1412149.1663497074
2,2, 1, 2, 0,23,20.00,30.00,Monday
3168,98201.25880373383
3217,1365877.4893046597
2,2, 1, 2, 0,23,30.00,40.00,Monday
3168,124920.16284535924
3217,1322719.4404070403
2,2, 1, 2, 0,23,40.00,50.00,Monday
3168,160125.74212557368
3217,1281835.7735089397
2,2, 1, 2, 0,23,50.00,60.00,Monday
3168,257854.75776284433
3217,1243165.0026411028
2,2, 1, 2, 0,24, 0.00,10.00,Monday
3168,321379.78633272724
3217,1110425.7764581689
2,2, 1, 2, 0,24,10.00,20.00,Monday
3168,357815.3217434287
3217,1052005.0718691533
2,2, 1, 2, 0,24,20.00,30.00,Monday
3168,426282.6750439505
3217,1009621.5268280124
2,2, 1, 2, 0,24,30.00,40.00,Monday
3168,487864.7397528009
3217,971873.4384024548
2,2, 1, 2, 0,24,40.00,50.00,Monday
3168,531764.355555734
3217,943141.9200300638
2,2, 1, 2, 0,24,50.00,60.00,Monday
3168,581386.140300479
3217,933615.0451714522
2,3, 1, 3, 0, 1, 0.00,10.00,Tuesday
3168,778103.3474742229
3217,624576.010745175
2,3, 1, 3, 0, 1,10.00,20.00,Tuesday
3168,844584.5246457362
3217,606748.1849747263
2,3, 1, 3, 0, 1,20.00,30.00,Tuesday
3168,906010.8680044782
3217,593567.3319267611
2,3, 1, 3, 0, 1,30.00,40.00,Tuesday
3168,964831.5011124825
3217,580850.6709141879
2,3, 1, 3, 0, 1,40.00,50.00,Tuesday
3168,1023173.560654199
3217,568409.2012847293
2,3, 1, 3, 0, 1,50.00,60.00,Tuesday
3168,1128246.0222793801
3217,556286.1065360281
2,3, 1, 3, 0, 2, 0.00,10.00,Tuesday
3168,1171413.214842412
3217,544527.0537564771
2,3, 1, 3, 0, 2,10.00,20.00,Tuesday
3168,1203005.1866971524
3217,533277.8181181946
2,3, 1, 3, 0, 2,20.00,30.00,Tuesday
3168,1220323.798099211
3217,522637.5512212083
2,3, 1, 3, 0, 2,30.00,40.00,Tuesday
3168,1237801.9173990383
3217,512793.71896587836
2,3, 1, 3, 0, 2,40.00,50.00,Tuesday
3168,1246256.191257763
3217,503562.3616710932
2,3, 1, 3, 0, 2,50.00,60.00,Tuesday
3168,1247412.4374080654
3217,494875.753773186
2,3, 1, 3, 0, 3, 0.00,10.00,Tuesday
3168,1300591.7101614205
3217,486683.0309866284
2,3, 1, 3, 0, 3,10.00,20.00,Tuesday
3168,1354209.0252613272
3217,478805.5956026615
2,3, 1, 3, 0, 3,20.00,30.00,Tuesday
3168,1404899.433515151
3217,471090.9511540089
2,3, 1, 3, 0, 3,30.00,40.00,Tuesday
3168,1454534.2791619357
3217,463445.6990061644
2,3, 1, 3, 0, 3,40.00,50.00,Tuesday
3168,1502435.4946728023
3217,455825.2330475319
2,3, 1, 3, 0, 3,50.00,60.00,Tuesday
3168,1563579.25561804
3217,448221.51292137784
2,3, 1, 3, 0, 4, 0.00,10.00,Tuesday
3168,1614134.629931142
3217,440642.22757306526
2,3, 1, 3, 0, 4,10.00,20.00,Tuesday
3168,1664608.1418700046
3217,433097.31659612595
2,3, 1, 3, 0, 4,20.00,30.00,Tuesday
3168,1714058.0536145351
3217,425591.5097659451
2,3, 1, 3, 0, 4,30.00,40.00,Tuesday
3168,1764323.33650458
3217,418125.5692381312
2,3, 1, 3, 0, 4,40.00,50.00,Tuesday
3168,1824517.7389117498
3217,410699.125099769
2,3, 1, 3, 0, 4,50.00,60.00,Tuesday
3168,1873191.8177989242
3217,403318.1598869143
2,3, 1, 3, 0, 5, 0.00,10.00,Tuesday
3168,2035042.5358383828
3217,395840.5421860198
2,3, 1, 3, 0, 5,10.00,20.00,Tuesday
3168,2188409.7307138755
3217,388302.63329698076
2,3, 1, 3, 0, 5,20.00,30.00,Tuesday
3168,2343711.200669772
3217,380606.2970059147
2,3, 1, 3, 0, 5,30.00,40.00,Tuesday
3168,2501454.820050995
3217,372687.7888862922
2,3, 1, 3, 0, 5,40.00,50.00,Tuesday
3168,2659763.2090554293
3217,364562.28949999966
2,3, 1, 3, 0, 5,50.00,60.00,Tuesday
3168,2819275.657430854
3217,356259.7685666821
2,3, 1, 3, 0, 6, 0.00,10.00,Tuesday
3168,0.0
3217,0.0
2,3, 1, 3, 0, 6,10.00,20.00,Tuesday
3168,0.0
3217,0.0
2,3, 1, 3, 0, 6,20.00,30.00,Tuesday
3168,0.0
3217,0.0
2,3, 1, 3, 0, 6,30.00,40.00,Tuesday
3168,0.0
3217,0.0
2,3, 1, 3, 0, 6,40.00,50.00,Tuesday
3168,0.0
3217,0.0
2,3, 1, 3, 0, 6,50.00,60.00,Tuesday
3168,0.0
3217,0.0
2,3, 1, 3, 0, 7, 0.00,10.00,Tuesday
3168,0.0
3217,0.0
2,3, 1, 3, 0, 7,10.00,20.00,Tuesday
3168,4628250.002930261
3217,1365083.505312433
2,3, 1, 3, 0, 7,20.00,30.00,Tuesday
3168,0.0
3217,0.0
2,3, 1, 3, 0, 7,30.00,40.00,Tuesday
3168,1873216.3247336822
3217,752465.8817378734
2,3, 1, 3, 0, 7,40.00,50.00,Tuesday
3168,2484330.660382414
3217,933432.8611475044
2,3, 1, 3, 0, 7,50.00,60.00,Tuesday
3168,1681882.4927317747
3217,710194.9665088591
2,3, 1, 3, 0, 8, 0.00,10.00,Tuesday
3168,7345280.828775205
3217,1085799.2360312005
2,3, 1, 3, 0, 8,10.00,20.00,Tuesday
3168,7384395.168392938
3217,1118521.771827587
2,3, 1, 3, 0, 8,20.00,30.00,Tuesday
3168,6371774.116873671
3217,1137261.038538766
2,3, 1, 3, 0, 8,30.00,40.00,Tuesday
3168,5801550.148356299
3217,1161825.8008731008
2,3, 1, 3, 0, 8,40.00,50.00,Tuesday
3168,5347713.330219649
3217,1190996.543442749
2,3, 1, 3, 0, 8,50.00,60.00,Tuesday
3168,4885489.836900219
3217,1226704.752718836
2,3, 1, 3, 0, 9, 0.00,10.00,Tuesday
3168,0.0
3217,8814249.28905162
2,3, 1, 3, 0, 9,10.00,20.00,Tuesday
3168,0.0
3217,10212416.30926018
2,3, 1, 3, 0, 9,20.00,30.00,Tuesday
3168,0.0
3217,11033588.28805488
2,3, 1, 3, 0, 9,30.00,40.00,Tuesday
3168,0.0
3217,13748495.648805305
2,3, 1, 3, 0, 9,40.00,50.00,Tuesday
3168,0.0
3217,15123936.887958856
2,3, 1, 3, 0, 9,50.00,60.00,Tuesday
3168,0.0
3217,16473187.145518469
2,3, 1, 3, 0,10, 0.00,10.00,Tuesday
3168,0.0
3217,19084412.453906618
2,3, 1, 3, 0,10,10.00,20.00,Tuesday
3168,0.0
3217,20396340.022901237
2,3, 1, 3, 0,10,20.00,30.00,Tuesday
3168,0.0
3217,21866999.004813243
2,3, 1, 3, 0,10,30.00,40.00,Tuesday
3168,0.0
3217,22915363.18838589
2,3, 1, 3, 0,10,40.00,50.00,Tuesday
3168,0.0
3217,23872485.533830643
2,3, 1, 3, 0,10,50.00,60.00,Tuesday
3168,0.0
3217,24808288.221017957
2,3, 1, 3, 0,11, 0.00,10.00,Tuesday
3168,0.0
3217,25748976.08691394
2,3, 1, 3, 0,11,10.00,20.00,Tuesday
3168,0.0
3217,26678661.229812525
2,3, 1, 3, 0,11,20.00,30.00,Tuesday
3168,0.0
3217,27592207.036374085
2,3, 1, 3, 0,11,30.00,40.00,Tuesday
3168,0.0
3217,28538509.55102968
2,3, 1, 3, 0,11,40.00,50.00,Tuesday
3168,0.0
3217,29556689.052584916
2,3, 1, 3, 0,11,50.00,60.00,Tuesday
3168,0.0
3217,30419015.430388782
2,3, 1, 3, 0,12, 0.00,10.00,Tuesday
3168,0.0
3217,31134195.48170112
2,3, 1, 3, 0,12,10.00,20.00,Tuesday
3168,0.0
3217,31787827.910293143
2,3, 1, 3, 0,12,20.00,30.00,Tuesday
3168,0.0
3217,32409519.997175884
2,3, 1, 3, 0,12,30.00,40.00,Tuesday
3168,0.0
3217,32928410.707484037
2,3, 1, 3, 0,12,40.00,50.00,Tuesday
3168,0.0
3217,33333594.676287707
2,3, 1, 3, 0,12,50.00,60.00,Tuesday
3168,0.0
3217,33781302.41587636
2,3, 1, 3, 0,13, 0.00,10.00,Tuesday
3168,0.0
3217,26960301.157686383
2,3, 1, 3, 0,13,10.00,20.00,Tuesday
3168,0.0
3217,27258784.73525489
2,3, 1, 3, 0,13,20.00,30.00,Tuesday
3168,0.0
3217,27619229.079488344
2,3, 1, 3, 0,13,30.00,40.00,Tuesday
3168,0.0
3217,28159387.012982022
2,3, 1, 3, 0,13,40.00,50.00,Tuesday
3168,0.0
3217,28762943.988754194
2,3, 1, 3, 0,13,50.00,60.00,Tuesday
3168,0.0
3217,29457970.213840675
2,3, 1, 3, 0,14, 0.00,10.00,Tuesday
3168,0.0
3217,36781303.61192648
2,3, 1, 3, 0,14,10.00,20.00,Tuesday
3168,0.0
3217,37670614.190688744
2,3, 1, 3, 0,14,20.00,30.00,Tuesday
3168,0.0
3217,38460018.67986315
2,3, 1, 3, 0,14,30.00,40.00,Tuesday
3168,0.0
3217,38951927.07610257
2,3, 1, 3, 0,14,40.00,50.00,Tuesday
3168,0.0
3217,39367249.78042611
2,3, 1, 3, 0,14,50.00,60.00,Tuesday
3168,0.0
3217,39812248.32241529
2,3, 1, 3, 0,15, 0.00,10.00,Tuesday
3168,0.0
3217,40292360.58537111
2,3, 1, 3, 0,15,10.00,20.00,Tuesday
3168,0.0
3217,40722197.75141409
2,3, 1, 3, 0,15,20.00,30.00,Tuesday
3168,0.0
3217,41133156.98230687
2,3, 1, 3, 0,15,30.00,40.00,Tuesday
3168,0.0
3217,41828645.290279314
2,3, 1, 3, 0,15,40.00,50.00,Tuesday
3168,0.0
3217,42550363.258209735
2,3, 1, 3, 0,15,50.00,60.00,Tuesday
3168,0.0
3217,43298123.73419987
2,3, 1, 3, 0,16, 0.00,10.00,Tuesday
3168,0.0
3217,43856058.15584751
2,3, 1, 3, 0,16,10.00,20.00,Tuesday
3168,0.0
3217,44427926.966313064
2,3, 1, 3, 0,16,20.00,30.00,Tuesday
3168,0.0
3217,44936698.5373917
2,3, 1, 3, 0,16,30.00,40.00,Tuesday
3168,0.0
3217,45331280.048124135
2,3, 1, 3, 0,16,40.00,50.00,Tuesday
3168,0.0
3217,45706626.06884563
2,3, 1, 3, 0,16,50.00,60.00,Tuesday
3168,0.0
3217,45977623.81080392
2,3, 1, 3, 0,17, 0.00,10.00,Tuesday
3168,0.0
3217,46226517.21866287
2,3, 1, 3, 0,17,10.00,20.00,Tuesday
3168,0.0
3217,46393389.911358036
2,3, 1, 3, 0,17,20.00,30.00,Tuesday
3168,0.0
3217,46568818.008588456
2,3, 1, 3, 0,17,30.00,40.00,Tuesday
3168,0.0
3217,45260218.93595479
2,3, 1, 3, 0,17,40.00,50.00,Tuesday
3168,0.0
3217,43644654.742853016
2,3, 1, 3, 0,17,50.00,60.00,Tuesday
3168,0.0
3217,41853606.695723474
2,3, 1, 3, 0,18, 0.00,10.00,Tuesday
3168,0.0
3217,22598699.973868225
2,3, 1, 3, 0,18,10.00,20.00,Tuesday
3168,0.0
3217,19469824.870498296
2,3, 1, 3, 0,18,20.00,30.00,Tuesday
3168,0.0
3217,16836164.17435872
2,3, 1, 3, 0,18,30.00,40.00,Tuesday
3168,0.0
3217,15438254.763600376
2,3, 1, 3, 0,18,40.00,50.00,Tuesday
3168,0.0
3217,14370736.1171149
2,3, 1, 3, 0,18,50.00,60.00,Tuesday
3168,0.0